# vtk DataFile Version 2.0
structure output
ASCII
DATASET UNSTRUCTURED_GRID
POINTS 20402 double
 9.90000e-04  1.00000e-03  1.00000e-05
 9.90000e-04  1.00000e-03  0.00000e+00
 9.90000e-04  9.90000e-04  0.00000e+00
 9.90000e-04  9.90000e-04  1.00000e-05
 1.00000e-03  1.00000e-03  1.00000e-05
 1.00000e-03  1.00000e-03  0.00000e+00
 1.00000e-03  9.90000e-04  0.00000e+00
 1.00000e-03  9.90000e-04  1.00000e-05
 1.00000e-03  9.80000e-04  1.00000e-05
 1.00000e-03  9.80000e-04  0.00000e+00
 9.90000e-04  9.80000e-04  0.00000e+00
 9.90000e-04  9.80000e-04  1.00000e-05
 1.00000e-03  9.70000e-04  1.00000e-05
 1.00000e-03  9.70000e-04  0.00000e+00
 9.90000e-04  9.70000e-04  0.00000e+00
 9.90000e-04  9.70000e-04  1.00000e-05
 1.00000e-03  9.60000e-04  1.00000e-05
 1.00000e-03  9.60000e-04  0.00000e+00
 9.90000e-04  9.60000e-04  0.00000e+00
 9.90000e-04  9.60000e-04  1.00000e-05
 1.00000e-03  9.50000e-04  1.00000e-05
 1.00000e-03  9.50000e-04  0.00000e+00
 9.90000e-04  9.50000e-04  0.00000e+00
 9.90000e-04  9.50000e-04  1.00000e-05
 1.00000e-03  9.40000e-04  1.00000e-05
 1.00000e-03  9.40000e-04  0.00000e+00
 9.90000e-04  9.40000e-04  0.00000e+00
 9.90000e-04  9.40000e-04  1.00000e-05
 1.00000e-03  9.30000e-04  1.00000e-05
 1.00000e-03  9.30000e-04  0.00000e+00
 9.90000e-04  9.30000e-04  0.00000e+00
 9.90000e-04  9.30000e-04  1.00000e-05
 1.00000e-03  9.20000e-04  1.00000e-05
 1.00000e-03  9.20000e-04  0.00000e+00
 9.90000e-04  9.20000e-04  0.00000e+00
 9.90000e-04  9.20000e-04  1.00000e-05
 1.00000e-03  9.10000e-04  1.00000e-05
 1.00000e-03  9.10000e-04  0.00000e+00
 9.90000e-04  9.10000e-04  0.00000e+00
 9.90000e-04  9.10000e-04  1.00000e-05
 1.00000e-03  9.00000e-04  1.00000e-05
 1.00000e-03  9.00000e-04  0.00000e+00
 9.90000e-04  9.00000e-04  0.00000e+00
 9.90000e-04  9.00000e-04  1.00000e-05
 1.00000e-03  8.90000e-04  1.00000e-05
 1.00000e-03  8.90000e-04  0.00000e+00
 9.90000e-04  8.90000e-04  0.00000e+00
 9.90000e-04  8.90000e-04  1.00000e-05
 1.00000e-03  8.80000e-04  1.00000e-05
 1.00000e-03  8.80000e-04  0.00000e+00
 9.90000e-04  8.80000e-04  0.00000e+00
 9.90000e-04  8.80000e-04  1.00000e-05
 1.00000e-03  8.70000e-04  1.00000e-05
 1.00000e-03  8.70000e-04  0.00000e+00
 9.90000e-04  8.70000e-04  0.00000e+00
 9.90000e-04  8.70000e-04  1.00000e-05
 1.00000e-03  8.60000e-04  1.00000e-05
 1.00000e-03  8.60000e-04  0.00000e+00
 9.90000e-04  8.60000e-04  0.00000e+00
 9.90000e-04  8.60000e-04  1.00000e-05
 1.00000e-03  8.50000e-04  1.00000e-05
 1.00000e-03  8.50000e-04  0.00000e+00
 9.90000e-04  8.50000e-04  0.00000e+00
 9.90000e-04  8.50000e-04  1.00000e-05
 1.00000e-03  8.40000e-04  1.00000e-05
 1.00000e-03  8.40000e-04  0.00000e+00
 9.90000e-04  8.40000e-04  0.00000e+00
 9.90000e-04  8.40000e-04  1.00000e-05
 1.00000e-03  8.30000e-04  1.00000e-05
 1.00000e-03  8.30000e-04  0.00000e+00
 9.90000e-04  8.30000e-04  0.00000e+00
 9.90000e-04  8.30000e-04  1.00000e-05
 1.00000e-03  8.20000e-04  1.00000e-05
 1.00000e-03  8.20000e-04  0.00000e+00
 9.90000e-04  8.20000e-04  0.00000e+00
 9.90000e-04  8.20000e-04  1.00000e-05
 1.00000e-03  8.10000e-04  1.00000e-05
 1.00000e-03  8.10000e-04  0.00000e+00
 9.90000e-04  8.10000e-04  0.00000e+00
 9.90000e-04  8.10000e-04  1.00000e-05
 1.00000e-03  8.00000e-04  1.00000e-05
 1.00000e-03  8.00000e-04  0.00000e+00
 9.90000e-04  8.00000e-04  0.00000e+00
 9.90000e-04  8.00000e-04  1.00000e-05
 1.00000e-03  7.90000e-04  1.00000e-05
 1.00000e-03  7.90000e-04  0.00000e+00
 9.90000e-04  7.90000e-04  0.00000e+00
 9.90000e-04  7.90000e-04  1.00000e-05
 1.00000e-03  7.80000e-04  1.00000e-05
 1.00000e-03  7.80000e-04  0.00000e+00
 9.90000e-04  7.80000e-04  0.00000e+00
 9.90000e-04  7.80000e-04  1.00000e-05
 1.00000e-03  7.70000e-04  1.00000e-05
 1.00000e-03  7.70000e-04  0.00000e+00
 9.90000e-04  7.70000e-04  0.00000e+00
 9.90000e-04  7.70000e-04  1.00000e-05
 1.00000e-03  7.60000e-04  1.00000e-05
 1.00000e-03  7.60000e-04  0.00000e+00
 9.90000e-04  7.60000e-04  0.00000e+00
 9.90000e-04  7.60000e-04  1.00000e-05
 1.00000e-03  7.50000e-04  1.00000e-05
 1.00000e-03  7.50000e-04  0.00000e+00
 9.90000e-04  7.50000e-04  0.00000e+00
 9.90000e-04  7.50000e-04  1.00000e-05
 1.00000e-03  7.40000e-04  1.00000e-05
 1.00000e-03  7.40000e-04  0.00000e+00
 9.90000e-04  7.40000e-04  0.00000e+00
 9.90000e-04  7.40000e-04  1.00000e-05
 1.00000e-03  7.30000e-04  1.00000e-05
 1.00000e-03  7.30000e-04  0.00000e+00
 9.90000e-04  7.30000e-04  0.00000e+00
 9.90000e-04  7.30000e-04  1.00000e-05
 1.00000e-03  7.20000e-04  1.00000e-05
 1.00000e-03  7.20000e-04  0.00000e+00
 9.90000e-04  7.20000e-04  0.00000e+00
 9.90000e-04  7.20000e-04  1.00000e-05
 1.00000e-03  7.10000e-04  1.00000e-05
 1.00000e-03  7.10000e-04  0.00000e+00
 9.90000e-04  7.10000e-04  0.00000e+00
 9.90000e-04  7.10000e-04  1.00000e-05
 1.00000e-03  7.00000e-04  1.00000e-05
 1.00000e-03  7.00000e-04  0.00000e+00
 9.90000e-04  7.00000e-04  0.00000e+00
 9.90000e-04  7.00000e-04  1.00000e-05
 1.00000e-03  6.90000e-04  1.00000e-05
 1.00000e-03  6.90000e-04  0.00000e+00
 9.90000e-04  6.90000e-04  0.00000e+00
 9.90000e-04  6.90000e-04  1.00000e-05
 1.00000e-03  6.80000e-04  1.00000e-05
 1.00000e-03  6.80000e-04  0.00000e+00
 9.90000e-04  6.80000e-04  0.00000e+00
 9.90000e-04  6.80000e-04  1.00000e-05
 1.00000e-03  6.70000e-04  1.00000e-05
 1.00000e-03  6.70000e-04  0.00000e+00
 9.90000e-04  6.70000e-04  0.00000e+00
 9.90000e-04  6.70000e-04  1.00000e-05
 1.00000e-03  6.60000e-04  1.00000e-05
 1.00000e-03  6.60000e-04  0.00000e+00
 9.90000e-04  6.60000e-04  0.00000e+00
 9.90000e-04  6.60000e-04  1.00000e-05
 1.00000e-03  6.50000e-04  1.00000e-05
 1.00000e-03  6.50000e-04  0.00000e+00
 9.90000e-04  6.50000e-04  0.00000e+00
 9.90000e-04  6.50000e-04  1.00000e-05
 1.00000e-03  6.40000e-04  1.00000e-05
 1.00000e-03  6.40000e-04  0.00000e+00
 9.90000e-04  6.40000e-04  0.00000e+00
 9.90000e-04  6.40000e-04  1.00000e-05
 1.00000e-03  6.30000e-04  1.00000e-05
 1.00000e-03  6.30000e-04  0.00000e+00
 9.90000e-04  6.30000e-04  0.00000e+00
 9.90000e-04  6.30000e-04  1.00000e-05
 1.00000e-03  6.20000e-04  1.00000e-05
 1.00000e-03  6.20000e-04  0.00000e+00
 9.90000e-04  6.20000e-04  0.00000e+00
 9.90000e-04  6.20000e-04  1.00000e-05
 1.00000e-03  6.10000e-04  1.00000e-05
 1.00000e-03  6.10000e-04  0.00000e+00
 9.90000e-04  6.10000e-04  0.00000e+00
 9.90000e-04  6.10000e-04  1.00000e-05
 1.00000e-03  6.00000e-04  1.00000e-05
 1.00000e-03  6.00000e-04  0.00000e+00
 9.90000e-04  6.00000e-04  0.00000e+00
 9.90000e-04  6.00000e-04  1.00000e-05
 1.00000e-03  5.90000e-04  1.00000e-05
 1.00000e-03  5.90000e-04  0.00000e+00
 9.90000e-04  5.90000e-04  0.00000e+00
 9.90000e-04  5.90000e-04  1.00000e-05
 1.00000e-03  5.80000e-04  1.00000e-05
 1.00000e-03  5.80000e-04  0.00000e+00
 9.90000e-04  5.80000e-04  0.00000e+00
 9.90000e-04  5.80000e-04  1.00000e-05
 1.00000e-03  5.70000e-04  1.00000e-05
 1.00000e-03  5.70000e-04  0.00000e+00
 9.90000e-04  5.70000e-04  0.00000e+00
 9.90000e-04  5.70000e-04  1.00000e-05
 1.00000e-03  5.60000e-04  1.00000e-05
 1.00000e-03  5.60000e-04  0.00000e+00
 9.90000e-04  5.60000e-04  0.00000e+00
 9.90000e-04  5.60000e-04  1.00000e-05
 1.00000e-03  5.50000e-04  1.00000e-05
 1.00000e-03  5.50000e-04  0.00000e+00
 9.90000e-04  5.50000e-04  0.00000e+00
 9.90000e-04  5.50000e-04  1.00000e-05
 1.00000e-03  5.40000e-04  1.00000e-05
 1.00000e-03  5.40000e-04  0.00000e+00
 9.90000e-04  5.40000e-04  0.00000e+00
 9.90000e-04  5.40000e-04  1.00000e-05
 1.00000e-03  5.30000e-04  1.00000e-05
 1.00000e-03  5.30000e-04  0.00000e+00
 9.90000e-04  5.30000e-04  0.00000e+00
 9.90000e-04  5.30000e-04  1.00000e-05
 1.00000e-03  5.20000e-04  1.00000e-05
 1.00000e-03  5.20000e-04  0.00000e+00
 9.90000e-04  5.20000e-04  0.00000e+00
 9.90000e-04  5.20000e-04  1.00000e-05
 1.00000e-03  5.10000e-04  1.00000e-05
 1.00000e-03  5.10000e-04  0.00000e+00
 9.90000e-04  5.10000e-04  0.00000e+00
 9.90000e-04  5.10000e-04  1.00000e-05
 1.00000e-03  5.00000e-04  1.00000e-05
 1.00000e-03  5.00000e-04  0.00000e+00
 9.90000e-04  5.00000e-04  0.00000e+00
 9.90000e-04  5.00000e-04  1.00000e-05
 1.00000e-03  4.90000e-04  1.00000e-05
 1.00000e-03  4.90000e-04  0.00000e+00
 9.90000e-04  4.90000e-04  0.00000e+00
 9.90000e-04  4.90000e-04  1.00000e-05
 1.00000e-03  4.80000e-04  1.00000e-05
 1.00000e-03  4.80000e-04  0.00000e+00
 9.90000e-04  4.80000e-04  0.00000e+00
 9.90000e-04  4.80000e-04  1.00000e-05
 1.00000e-03  4.70000e-04  1.00000e-05
 1.00000e-03  4.70000e-04  0.00000e+00
 9.90000e-04  4.70000e-04  0.00000e+00
 9.90000e-04  4.70000e-04  1.00000e-05
 1.00000e-03  4.60000e-04  1.00000e-05
 1.00000e-03  4.60000e-04  0.00000e+00
 9.90000e-04  4.60000e-04  0.00000e+00
 9.90000e-04  4.60000e-04  1.00000e-05
 1.00000e-03  4.50000e-04  1.00000e-05
 1.00000e-03  4.50000e-04  0.00000e+00
 9.90000e-04  4.50000e-04  0.00000e+00
 9.90000e-04  4.50000e-04  1.00000e-05
 1.00000e-03  4.40000e-04  1.00000e-05
 1.00000e-03  4.40000e-04  0.00000e+00
 9.90000e-04  4.40000e-04  0.00000e+00
 9.90000e-04  4.40000e-04  1.00000e-05
 1.00000e-03  4.30000e-04  1.00000e-05
 1.00000e-03  4.30000e-04  0.00000e+00
 9.90000e-04  4.30000e-04  0.00000e+00
 9.90000e-04  4.30000e-04  1.00000e-05
 1.00000e-03  4.20000e-04  1.00000e-05
 1.00000e-03  4.20000e-04  0.00000e+00
 9.90000e-04  4.20000e-04  0.00000e+00
 9.90000e-04  4.20000e-04  1.00000e-05
 1.00000e-03  4.10000e-04  1.00000e-05
 1.00000e-03  4.10000e-04  0.00000e+00
 9.90000e-04  4.10000e-04  0.00000e+00
 9.90000e-04  4.10000e-04  1.00000e-05
 1.00000e-03  4.00000e-04  1.00000e-05
 1.00000e-03  4.00000e-04  0.00000e+00
 9.90000e-04  4.00000e-04  0.00000e+00
 9.90000e-04  4.00000e-04  1.00000e-05
 1.00000e-03  3.90000e-04  1.00000e-05
 1.00000e-03  3.90000e-04  0.00000e+00
 9.90000e-04  3.90000e-04  0.00000e+00
 9.90000e-04  3.90000e-04  1.00000e-05
 1.00000e-03  3.80000e-04  1.00000e-05
 1.00000e-03  3.80000e-04  0.00000e+00
 9.90000e-04  3.80000e-04  0.00000e+00
 9.90000e-04  3.80000e-04  1.00000e-05
 1.00000e-03  3.70000e-04  1.00000e-05
[...]
CELL_DATA 10000
VECTORS Deformation double
-5.48448e-06  4.19894e-06 -3.07932e-25
-5.48448e-06  4.15664e-06  2.35072e-25
-5.48448e-06  4.11433e-06  3.97076e-25
-5.48448e-06  4.07202e-06  1.71283e-25
-5.48448e-06  4.02972e-06  3.40274e-25
-5.48448e-06  3.98741e-06  2.86774e-25
-5.48448e-06  3.94510e-06 -2.31579e-25
-5.48448e-06  3.90280e-06 -2.24625e-26
-5.48448e-06  3.86049e-06 -8.61618e-26
-5.48448e-06  3.81818e-06 -3.21582e-26
-5.48448e-06  3.77588e-06 -1.75046e-25
-5.48448e-06  3.73357e-06  6.57338e-26
-5.48448e-06  3.69126e-06  1.24085e-25
-5.48448e-06  3.64896e-06 -2.31328e-26
-5.48448e-06  3.60665e-06 -8.66944e-26
-5.48448e-06  3.56434e-06 -3.52463e-25
-5.48448e-06  3.52204e-06 -3.41018e-25
-5.48448e-06  3.47973e-06  1.07465e-26
-5.48448e-06  3.43742e-06 -6.48913e-26
-5.48448e-06  3.39512e-06  1.98254e-25
-5.48448e-06  3.35281e-06 -1.08741e-26
-5.48448e-06  3.31050e-06  2.61003e-25
-5.48448e-06  3.26820e-06  9.42170e-27
-5.48448e-06  3.22589e-06  5.08523e-26
-5.48448e-06  3.18358e-06 -1.45453e-25
-5.48448e-06  3.14128e-06  3.40223e-26
-5.48448e-06  3.09897e-06 -3.40755e-25
-5.48448e-06  3.05666e-06 -7.75008e-26
-5.48448e-06  3.01436e-06  3.50840e-25
-5.48448e-06  2.97205e-06  7.04725e-26
-5.48448e-06  2.92974e-06  3.64474e-25
-5.48448e-06  2.88744e-06 -3.30793e-25
-5.48448e-06  2.84513e-06  6.27139e-26
-5.48448e-06  2.80282e-06 -2.74863e-25
-5.48448e-06  2.76052e-06 -1.12548e-27
-5.48448e-06  2.71821e-06  2.18204e-25
-5.48448e-06  2.67590e-06  3.22762e-25
-5.48448e-06  2.63359e-06  9.69797e-26
-5.48448e-06  2.59129e-06  1.69051e-25
-5.48448e-06  2.54898e-06  2.03100e-25
-5.48448e-06  2.50667e-06  3.25756e-25
-5.48448e-06  2.46437e-06  2.10038e-25
-5.48448e-06  2.42206e-06 -9.19438e-26
-5.48448e-06  2.37975e-06  1.10216e-25
-5.48448e-06  2.33745e-06  4.34872e-26
-5.48448e-06  2.29514e-06  2.70917e-25
-5.48448e-06  2.25283e-06  2.96332e-25
-5.48448e-06  2.21053e-06 -2.28825e-25
-5.48448e-06  2.16822e-06 -1.94741e-25
-5.48448e-06  2.12591e-06  3.59607e-25
-5.48448e-06  2.08361e-06  3.66354e-25
-5.48448e-06  2.04130e-06 -7.41560e-26
-5.48448e-06  1.99899e-06 -9.11841e-26
-5.48448e-06  1.95669e-06  2.84740e-26
-5.48448e-06  1.91438e-06  1.46752e-25
-5.48448e-06  1.87207e-06  7.70723e-26
-5.48448e-06  1.82977e-06  2.56309e-25
-5.48448e-06  1.78746e-06  2.47240e-26
-5.48448e-06  1.74515e-06  8.76496e-26
-5.48448e-06  1.70285e-06 -4.49632e-26
-5.48448e-06  1.66054e-06 -7.47683e-26
-5.48448e-06  1.61823e-06 -1.88137e-25
-5.48448e-06  1.57593e-06 -3.04777e-25
-5.48448e-06  1.53362e-06 -7.95268e-26
-5.48448e-06  1.49131e-06  2.86972e-25
-5.48448e-06  1.44901e-06  6.20602e-26
-5.48448e-06  1.40670e-06  1.40178e-25
-5.48448e-06  1.36439e-06  2.02254e-25
-5.48448e-06  1.32209e-06  1.46365e-25
-5.48448e-06  1.27978e-06  4.70138e-26
-5.48448e-06  1.23747e-06 -1.12009e-26
-5.48448e-06  1.19517e-06 -6.65629e-26
-5.48448e-06  1.15286e-06 -9.28066e-26
-5.48448e-06  1.11055e-06  1.63332e-25
-5.48448e-06  1.06825e-06 -1.32416e-25
-5.48448e-06  1.02594e-06 -3.90465e-25
-5.48448e-06  9.83632e-07 -1.74271e-25
-5.48448e-06  9.41325e-07 -1.31382e-25
-5.48448e-06  8.99018e-07 -3.25497e-25
-5.48448e-06  8.56712e-07 -3.40715e-25
-5.48448e-06  8.14405e-07 -9.77867e-26
-5.48448e-06  7.72098e-07  7.52469e-26
-5.48448e-06  7.29791e-07 -1.34007e-25
-5.48448e-06  6.87485e-07 -2.99102e-25
-5.48448e-06  6.45178e-07 -5.77743e-26
-5.48448e-06  6.02871e-07 -1.52326e-25
-5.48448e-06  5.60564e-07 -3.17799e-26
-5.48448e-06  5.18258e-07 -3.51293e-25
-5.48448e-06  4.75951e-07  3.39337e-25
-5.48448e-06  4.33644e-07  1.56747e-26
-5.48448e-06  3.91337e-07 -2.63561e-25
-5.48448e-06  3.49031e-07  1.39167e-25
-5.48448e-06  3.06724e-07 -2.01214e-25
-5.48448e-06  2.64417e-07 -1.72519e-25
-5.48448e-06  2.22110e-07  2.04565e-25
-5.48448e-06  1.79804e-07  5.53586e-27
-5.48448e-06  1.37497e-07 -1.41450e-25
-5.48448e-06  9.51902e-08  6.17517e-26
-5.48448e-06  5.28834e-08  5.68433e-26
-5.48448e-06  1.05767e-08  4.30155e-27
-5.42922e-06  4.19894e-06 -4.26573e-26
-5.42922e-06  4.15664e-06 -2.54775e-25
-5.42922e-06  4.11433e-06  2.90999e-25
-5.42922e-06  4.07202e-06  4.93369e-26
-5.42922e-06  4.02972e-06  2.37027e-25
-5.42922e-06  3.98741e-06  4.00924e-26
-5.42922e-06  3.94510e-06  1.03769e-25
-5.42922e-06  3.90280e-06  3.13037e-25
-5.42922e-06  3.86049e-06  2.85524e-25
-5.42922e-06  3.81818e-06  2.89332e-25
-5.42922e-06  3.77588e-06 -1.91764e-26
-5.42922e-06  3.73357e-06 -2.84521e-25
-5.42922e-06  3.69126e-06  2.77056e-25
-5.42922e-06  3.64896e-06 -8.45892e-26
-5.42922e-06  3.60665e-06 -1.08705e-31
-5.42922e-06  3.56434e-06  2.47456e-25
-5.42922e-06  3.52204e-06  1.99859e-26
-5.42922e-06  3.47973e-06  2.85380e-25
-5.42922e-06  3.43742e-06 -2.56244e-25
-5.42922e-06  3.39512e-06  9.33597e-27
-5.42922e-06  3.35281e-06 -2.90896e-26
-5.42922e-06  3.31050e-06 -2.94645e-25
-5.42922e-06  3.26820e-06 -2.65128e-25
-5.42922e-06  3.22589e-06  2.30240e-25
-5.42922e-06  3.18358e-06 -1.24460e-25
-5.42922e-06  3.14128e-06  1.06590e-26
-5.42922e-06  3.09897e-06 -3.30160e-25
-5.42922e-06  3.05666e-06 -3.27118e-25
-5.42922e-06  3.01436e-06  3.00152e-25
-5.42922e-06  2.97205e-06  2.15475e-26
-5.42922e-06  2.92974e-06  4.18125e-26
-5.42922e-06  2.88744e-06 -3.01061e-25
-5.42922e-06  2.84513e-06  1.66520e-25
-5.42922e-06  2.80282e-06 -8.31446e-26
-5.42922e-06  2.76052e-06 -1.06526e-26
-5.42922e-06  2.71821e-06  2.49702e-25
-5.42922e-06  2.67590e-06  3.99170e-27
-5.42922e-06  2.63359e-06 -3.11354e-25
-5.42922e-06  2.59129e-06 -2.08654e-25
-5.42922e-06  2.54898e-06 -3.02923e-27
-5.42922e-06  2.50667e-06 -2.59634e-25
-5.42922e-06  2.46437e-06  2.92158e-25
-5.42922e-06  2.42206e-06  1.36229e-26
-5.42922e-06  2.37975e-06  5.27159e-26
-5.42922e-06  2.33745e-06  3.37253e-25
-5.42922e-06  2.29514e-06  3.55720e-25
-5.42922e-06  2.25283e-06  3.15961e-25
-5.42922e-06  2.21053e-06 -2.11916e-26
-5.42922e-06  2.16822e-06 -2.11354e-25
-5.42922e-06  2.12591e-06 -4.64171e-26
-5.42922e-06  2.08361e-06 -1.16310e-25
-5.42922e-06  2.04130e-06 -2.44514e-25
-5.42922e-06  1.99899e-06  2.78206e-25
-5.42922e-06  1.95669e-06  1.34649e-25
-5.42922e-06  1.91438e-06  2.59288e-25
-5.42922e-06  1.87207e-06  3.75366e-25
-5.42922e-06  1.82977e-06 -5.72444e-26
-5.42922e-06  1.78746e-06  1.59451e-25
-5.42922e-06  1.74515e-06 -9.73275e-28
-5.42922e-06  1.70285e-06  2.40247e-25
-5.42922e-06  1.66054e-06  1.56769e-26
-5.42922e-06  1.61823e-06 -3.79802e-25
-5.42922e-06  1.57593e-06 -1.05340e-25
-5.42922e-06  1.53362e-06 -2.99352e-25
-5.42922e-06  1.49131e-06  2.57039e-25
-5.42922e-06  1.44901e-06  2.95228e-25
-5.42922e-06  1.40670e-06  1.50477e-25
-5.42922e-06  1.36439e-06  8.05453e-26
-5.42922e-06  1.32209e-06  2.22710e-25
-5.42922e-06  1.27978e-06  3.17377e-25
-5.42922e-06  1.23747e-06  1.43059e-25
-5.42922e-06  1.19517e-06  1.56004e-25
-5.42922e-06  1.15286e-06  2.19372e-25
-5.42922e-06  1.11055e-06 -5.67188e-26
-5.42922e-06  1.06825e-06 -6.69417e-26
-5.42922e-06  1.02594e-06 -7.35015e-26
-5.42922e-06  9.83632e-07 -8.38161e-26
-5.42922e-06  9.41325e-07 -1.82734e-25
-5.42922e-06  8.99018e-07  7.77428e-26
-5.42922e-06  8.56712e-07  1.01973e-25
-5.42922e-06  8.14405e-07 -1.51169e-25
-5.42922e-06  7.72098e-07  2.73980e-25
-5.42922e-06  7.29791e-07 -2.33031e-25
-5.42922e-06  6.87485e-07  6.98071e-26
-5.42922e-06  6.45178e-07  2.14981e-25
-5.42922e-06  6.02871e-07  3.71083e-25
-5.42922e-06  5.60564e-07  1.40514e-26
-5.42922e-06  5.18258e-07  5.67933e-26
-5.42922e-06  4.75951e-07  1.34490e-25
-5.42922e-06  4.33644e-07 -2.56081e-25
-5.42922e-06  3.91337e-07 -1.44282e-25
-5.42922e-06  3.49031e-07 -1.44288e-25
-5.42922e-06  3.06724e-07  4.28813e-26
-5.42922e-06  2.64417e-07  6.95833e-26
-5.42922e-06  2.22110e-07 -3.94628e-26
-5.42922e-06  1.79804e-07 -1.90187e-27
-5.42922e-06  1.37497e-07  3.98593e-27
-5.42922e-06  9.51902e-08 -1.11806e-25
-5.42922e-06  5.28834e-08  1.59243e-25
-5.42922e-06  1.05767e-08 -1.52550e-25
-5.37396e-06  4.19894e-06  1.49458e-25
-5.37396e-06  4.15664e-06 -3.19228e-25
-5.37396e-06  4.11433e-06 -2.18108e-25
-5.37396e-06  4.07202e-06  9.17754e-26
-5.37396e-06  4.02972e-06  1.85089e-25
-5.37396e-06  3.98741e-06 -1.35885e-25
-5.37396e-06  3.94510e-06  1.14270e-25
-5.37396e-06  3.90280e-06 -1.41197e-25
-5.37396e-06  3.86049e-06  2.68203e-25
-5.37396e-06  3.81818e-06  2.24543e-25
-5.37396e-06  3.77588e-06 -6.19663e-26
-5.37396e-06  3.73357e-06 -2.19115e-25
-5.37396e-06  3.69126e-06  4.57961e-26
-5.37396e-06  3.64896e-06 -3.22010e-25
-5.37396e-06  3.60665e-06 -6.78000e-26
-5.37396e-06  3.56434e-06 -2.34661e-25
-5.37396e-06  3.52204e-06  5.99899e-26
-5.37396e-06  3.47973e-06  1.35390e-25
-5.37396e-06  3.43742e-06 -1.07351e-25
-5.37396e-06  3.39512e-06  2.06476e-25
-5.37396e-06  3.35281e-06 -3.94635e-26
-5.37396e-06  3.31050e-06  2.49437e-26
-5.37396e-06  3.26820e-06  3.93165e-25
-5.37396e-06  3.22589e-06  8.77988e-26
-5.37396e-06  3.18358e-06 -3.16383e-26
-5.37396e-06  3.14128e-06  3.26962e-25
-5.37396e-06  3.09897e-06  2.10905e-25
-5.37396e-06  3.05666e-06 -2.85760e-25
-5.37396e-06  3.01436e-06  2.32861e-26
-5.37396e-06  2.97205e-06 -1.48562e-25
-5.37396e-06  2.92974e-06  4.05332e-25
-5.37396e-06  2.88744e-06  2.79476e-26
-5.37396e-06  2.84513e-06 -2.64078e-25
-5.37396e-06  2.80282e-06  2.43765e-25
-5.37396e-06  2.76052e-06 -2.89220e-25
-5.37396e-06  2.71821e-06 -3.28522e-25
-5.37396e-06  2.67590e-06 -2.11884e-25
-5.37396e-06  2.63359e-06 -1.07792e-25
-5.37396e-06  2.59129e-06  2.14076e-25
-5.37396e-06  2.54898e-06  2.29429e-25
-5.37396e-06  2.50667e-06 -1.20081e-25
-5.37396e-06  2.46437e-06  1.61664e-26
-5.37396e-06  2.42206e-06 -8.43997e-26
-5.37396e-06  2.37975e-06  1.63008e-25
-5.37396e-06  2.33745e-06  8.01786e-26
-5.37396e-06  2.29514e-06 -1.71928e-25
-5.37396e-06  2.25283e-06  1.77334e-25
-5.37396e-06  2.21053e-06 -1.30054e-25
-5.37396e-06  2.16822e-06 -3.32464e-25
-5.37396e-06  2.12591e-06 -1.05892e-25
-5.37396e-06  2.08361e-06  8.27785e-26
-5.37396e-06  2.04130e-06  3.02074e-25
-5.37396e-06  1.99899e-06  1.78892e-25
-5.37396e-06  1.95669e-06  2.14385e-25
-5.37396e-06  1.91438e-06 -8.56043e-26
-5.37396e-06  1.87207e-06 -2.77221e-26
-5.37396e-06  1.82977e-06  5.65057e-26
-5.37396e-06  1.78746e-06  2.51051e-25
-5.37396e-06  1.74515e-06  4.37818e-25
-5.37396e-06  1.70285e-06  4.24630e-25
-5.37396e-06  1.66054e-06 -2.24349e-25
-5.37396e-06  1.61823e-06 -1.10130e-25
-5.37396e-06  1.57593e-06 -1.20163e-25
-5.37396e-06  1.53362e-06  1.79865e-25
-5.37396e-06  1.49131e-06 -2.10921e-25
-5.37396e-06  1.44901e-06  1.05884e-26
-5.37396e-06  1.40670e-06 -8.84505e-26
-5.37396e-06  1.36439e-06  2.97023e-25
-5.37396e-06  1.32209e-06 -7.40040e-26
-5.37396e-06  1.27978e-06 -4.07934e-25
-5.37396e-06  1.23747e-06  4.16053e-26
-5.37396e-06  1.19517e-06 -2.86129e-25
-5.37396e-06  1.15286e-06  1.83818e-25
-5.37396e-06  1.11055e-06  3.17685e-25
-5.37396e-06  1.06825e-06 -1.30274e-25
-5.37396e-06  1.02594e-06 -7.14019e-26
-5.37396e-06  9.83632e-07 -1.36305e-25
-5.37396e-06  9.41325e-07  1.20446e-25
-5.37396e-06  8.99018e-07 -6.81778e-28
-5.37396e-06  8.56712e-07  1.46585e-25
-5.37396e-06  8.14405e-07 -1.23047e-25
-5.37396e-06  7.72098e-07  9.62586e-28
-5.37396e-06  7.29791e-07  3.12048e-25
-5.37396e-06  6.87485e-07 -1.42688e-25
-5.37396e-06  6.45178e-07 -1.77406e-25
-5.37396e-06  6.02871e-07  3.70558e-26
-5.37396e-06  5.60564e-07  9.62359e-26
-5.37396e-06  5.18258e-07  9.80364e-26
-5.37396e-06  4.75951e-07  1.46598e-26
-5.37396e-06  4.33644e-07 -1.37512e-25
-5.37396e-06  3.91337e-07 -1.36468e-25
-5.37396e-06  3.49031e-07  2.50150e-25
-5.37396e-06  3.06724e-07  3.48174e-25
-5.37396e-06  2.64417e-07 -4.27526e-27
-5.37396e-06  2.22110e-07 -7.27082e-26
-5.37396e-06  1.79804e-07  6.43441e-27
-5.37396e-06  1.37497e-07  2.99537e-25
-5.37396e-06  9.51902e-08  2.69588e-25
-5.37396e-06  5.28834e-08  1.52598e-25
-5.37396e-06  1.05767e-08  8.20512e-26
-5.31870e-06  4.19894e-06  1.29053e-25
-5.31870e-06  4.15664e-06  1.51239e-26
-5.31870e-06  4.11433e-06 -1.50839e-25
-5.31870e-06  4.07202e-06 -1.21490e-25
-5.31870e-06  4.02972e-06 -1.09901e-25
-5.31870e-06  3.98741e-06 -3.72600e-25
-5.31870e-06  3.94510e-06  4.83024e-26
-5.31870e-06  3.90280e-06  1.38609e-25
-5.31870e-06  3.86049e-06  2.95680e-25
-5.31870e-06  3.81818e-06  2.15573e-25
-5.31870e-06  3.77588e-06  1.01914e-25
-5.31870e-06  3.73357e-06 -1.44084e-25
-5.31870e-06  3.69126e-06 -1.08742e-25
-5.31870e-06  3.64896e-06 -2.93902e-25
-5.31870e-06  3.60665e-06 -2.59945e-25
-5.31870e-06  3.56434e-06 -3.31630e-25
-5.31870e-06  3.52204e-06 -1.93028e-25
-5.31870e-06  3.47973e-06 -5.04521e-26
-5.31870e-06  3.43742e-06 -7.15132e-26
-5.31870e-06  3.39512e-06 -4.25021e-27
-5.31870e-06  3.35281e-06  9.19013e-26
-5.31870e-06  3.31050e-06  7.75496e-27
-5.31870e-06  3.26820e-06  3.51358e-25
-5.31870e-06  3.22589e-06  2.04642e-25
-5.31870e-06  3.18358e-06  2.34594e-25
-5.31870e-06  3.14128e-06  1.44498e-25
-5.31870e-06  3.09897e-06  1.92923e-25
-5.31870e-06  3.05666e-06  1.83554e-25
-5.31870e-06  3.01436e-06 -9.83306e-26
-5.31870e-06  2.97205e-06  2.97471e-25
-5.31870e-06  2.92974e-06  2.08233e-25
-5.31870e-06  2.88744e-06  2.05764e-25
-5.31870e-06  2.84513e-06  2.15335e-25
-5.31870e-06  2.80282e-06  1.03584e-27
-5.31870e-06  2.76052e-06 -3.63881e-25
-5.31870e-06  2.71821e-06 -2.27220e-25
-5.31870e-06  2.67590e-06 -1.47081e-25
-5.31870e-06  2.63359e-06 -1.53829e-25
-5.31870e-06  2.59129e-06 -1.46424e-25
-5.31870e-06  2.54898e-06 -2.50179e-26
-5.31870e-06  2.50667e-06  1.18023e-25
-5.31870e-06  2.46437e-06 -1.28044e-25
-5.31870e-06  2.42206e-06 -2.24021e-25
-5.31870e-06  2.37975e-06 -2.87600e-25
-5.31870e-06  2.33745e-06  3.40602e-25
-5.31870e-06  2.29514e-06 -7.32183e-26
-5.31870e-06  2.25283e-06  1.34097e-25
-5.31870e-06  2.21053e-06 -4.36537e-25
-5.31870e-06  2.16822e-06 -2.44275e-25
-5.31870e-06  2.12591e-06 -1.41851e-25
-5.31870e-06  2.08361e-06  8.31690e-26
-5.31870e-06  2.04130e-06  1.38416e-25
-5.31870e-06  1.99899e-06 -9.68487e-26
-5.31870e-06  1.95669e-06 -1.03981e-25
-5.31870e-06  1.91438e-06  3.82603e-25
-5.31870e-06  1.87207e-06 -2.97713e-26
-5.31870e-06  1.82977e-06  1.31184e-25
-5.31870e-06  1.78746e-06 -1.90545e-26
-5.31870e-06  1.74515e-06 -3.21073e-25
-5.31870e-06  1.70285e-06 -1.29024e-25
-5.31870e-06  1.66054e-06  2.84561e-26
-5.31870e-06  1.61823e-06 -1.54634e-25
-5.31870e-06  1.57593e-06 -1.53084e-25
-5.31870e-06  1.53362e-06  5.64947e-26
-5.31870e-06  1.49131e-06  6.53348e-26
-5.31870e-06  1.44901e-06  8.60856e-26
-5.31870e-06  1.40670e-06 -2.32127e-25
-5.31870e-06  1.36439e-06  4.35664e-26
-5.31870e-06  1.32209e-06  2.12017e-25
-5.31870e-06  1.27978e-06 -4.01353e-25
-5.31870e-06  1.23747e-06  9.24202e-27
-5.31870e-06  1.19517e-06  1.06582e-25
-5.31870e-06  1.15286e-06 -1.02172e-25
-5.31870e-06  1.11055e-06  1.10337e-25
-5.31870e-06  1.06825e-06 -9.91872e-26
-5.31870e-06  1.02594e-06 -1.07067e-25
-5.31870e-06  9.83632e-07  6.60295e-26
-5.31870e-06  9.41325e-07  3.98845e-27
-5.31870e-06  8.99018e-07  1.89731e-25
-5.31870e-06  8.56712e-07  1.06421e-25
-5.31870e-06  8.14405e-07  2.31822e-25
-5.31870e-06  7.72098e-07  4.51920e-26
-5.31870e-06  7.29791e-07  5.91923e-26
-5.31870e-06  6.87485e-07 -4.53943e-26
-5.31870e-06  6.45178e-07  2.00153e-25
-5.31870e-06  6.02871e-07 -4.11037e-26
-5.31870e-06  5.60564e-07 -9.99487e-26
-5.31870e-06  5.18258e-07 -3.59411e-25
-5.31870e-06  4.75951e-07 -3.57879e-25
-5.31870e-06  4.33644e-07  1.67748e-25
-5.31870e-06  3.91337e-07  2.91129e-25
-5.31870e-06  3.49031e-07  1.35539e-25
-5.31870e-06  3.06724e-07  4.31255e-26
-5.31870e-06  2.64417e-07 -1.53266e-25
-5.31870e-06  2.22110e-07 -1.58622e-26
-5.31870e-06  1.79804e-07  5.14262e-26
-5.31870e-06  1.37497e-07 -1.31360e-25
-5.31870e-06  9.51902e-08  1.61335e-25
-5.31870e-06  5.28834e-08 -3.75531e-26
-5.31870e-06  1.05767e-08  1.05974e-25
-5.26344e-06  4.19894e-06  1.26927e-25
-5.26344e-06  4.15664e-06  3.93286e-26
-5.26344e-06  4.11433e-06  1.87514e-25
-5.26344e-06  4.07202e-06  1.05192e-25
-5.26344e-06  4.02972e-06  1.60521e-26
-5.26344e-06  3.98741e-06  7.73484e-26
-5.26344e-06  3.94510e-06 -2.22563e-25
-5.26344e-06  3.90280e-06 -2.03026e-26
-5.26344e-06  3.86049e-06  1.01571e-25
-5.26344e-06  3.81818e-06  1.33981e-26
-5.26344e-06  3.77588e-06 -1.78057e-25
-5.26344e-06  3.73357e-06  1.24247e-25
-5.26344e-06  3.69126e-06 -1.51117e-26
-5.26344e-06  3.64896e-06  6.35595e-27
-5.26344e-06  3.60665e-06 -5.16478e-26
-5.26344e-06  3.56434e-06 -1.97281e-25
-5.26344e-06  3.52204e-06  9.15474e-26
-5.26344e-06  3.47973e-06 -2.69877e-27
-5.26344e-06  3.43742e-06  1.29241e-25
-5.26344e-06  3.39512e-06 -1.87968e-26
-5.26344e-06  3.35281e-06  2.76752e-26
-5.26344e-06  3.31050e-06  2.12248e-25
-5.26344e-06  3.26820e-06 -1.72349e-25
-5.26344e-06  3.22589e-06  2.45088e-25
-5.26344e-06  3.18358e-06  1.03832e-27
-5.26344e-06  3.14128e-06 -3.00217e-25
-5.26344e-06  3.09897e-06 -1.78721e-25
-5.26344e-06  3.05666e-06 -1.45638e-25
-5.26344e-06  3.01436e-06 -4.35370e-26
-5.26344e-06  2.97205e-06  3.19950e-26
-5.26344e-06  2.92974e-06 -3.35410e-25
-5.26344e-06  2.88744e-06 -1.14997e-25
-5.26344e-06  2.84513e-06  1.35868e-25
-5.26344e-06  2.80282e-06 -2.06204e-25
-5.26344e-06  2.76052e-06  3.21366e-25
-5.26344e-06  2.71821e-06  2.84248e-25
-5.26344e-06  2.67590e-06  3.94008e-26
-5.26344e-06  2.63359e-06 -3.12312e-25
-5.26344e-06  2.59129e-06 -1.68338e-25
-5.26344e-06  2.54898e-06 -1.22239e-25
-5.26344e-06  2.50667e-06 -2.58397e-25
-5.26344e-06  2.46437e-06  1.21501e-25
-5.26344e-06  2.42206e-06  2.39039e-25
-5.26344e-06  2.37975e-06 -2.28709e-25
-5.26344e-06  2.33745e-06  9.78222e-26
-5.26344e-06  2.29514e-06 -2.84524e-25
-5.26344e-06  2.25283e-06 -5.34960e-27
-5.26344e-06  2.21053e-06  9.24635e-26
-5.26344e-06  2.16822e-06  2.00722e-26
-5.26344e-06  2.12591e-06  4.57877e-26
-5.26344e-06  2.08361e-06 -1.31642e-25
-5.26344e-06  2.04130e-06 -1.76464e-26
-5.26344e-06  1.99899e-06 -1.57687e-26
-5.26344e-06  1.95669e-06  2.75089e-25
-5.26344e-06  1.91438e-06  2.47190e-25
-5.26344e-06  1.87207e-06 -9.66358e-26
-5.26344e-06  1.82977e-06  1.65733e-25
-5.26344e-06  1.78746e-06 -2.25760e-25
-5.26344e-06  1.74515e-06 -2.31399e-25
-5.26344e-06  1.70285e-06 -9.85693e-26
-5.26344e-06  1.66054e-06  2.12511e-25
-5.26344e-06  1.61823e-06 -2.05757e-25
-5.26344e-06  1.57593e-06 -1.47611e-25
-5.26344e-06  1.53362e-06 -1.90521e-25
-5.26344e-06  1.49131e-06  2.02937e-25
-5.26344e-06  1.44901e-06 -2.60145e-25
-5.26344e-06  1.40670e-06 -1.89142e-25
-5.26344e-06  1.36439e-06 -2.92426e-25
-5.26344e-06  1.32209e-06  4.28397e-25
-5.26344e-06  1.27978e-06 -2.37286e-25
-5.26344e-06  1.23747e-06 -3.72643e-25
-5.26344e-06  1.19517e-06  1.10457e-25
-5.26344e-06  1.15286e-06 -1.94290e-25
-5.26344e-06  1.11055e-06 -2.70270e-25
-5.26344e-06  1.06825e-06  2.71908e-25
-5.26344e-06  1.02594e-06  2.69019e-25
-5.26344e-06  9.83632e-07 -1.91992e-28
-5.26344e-06  9.41325e-07  3.32596e-25
-5.26344e-06  8.99018e-07  4.31166e-26
-5.26344e-06  8.56712e-07  9.26979e-26
-5.26344e-06  8.14405e-07  1.49687e-25
-5.26344e-06  7.72098e-07 -3.63968e-25
-5.26344e-06  7.29791e-07  7.76503e-26
-5.26344e-06  6.87485e-07  1.67997e-25
-5.26344e-06  6.45178e-07 -6.99481e-26
-5.26344e-06  6.02871e-07  1.57717e-25
-5.26344e-06  5.60564e-07 -3.49147e-25
-5.26344e-06  5.18258e-07 -5.27140e-26
-5.26344e-06  4.75951e-07  9.33705e-27
-5.26344e-06  4.33644e-07 -3.78644e-26
-5.26344e-06  3.91337e-07 -4.29771e-25
-5.26344e-06  3.49031e-07 -3.14517e-25
-5.26344e-06  3.06724e-07  1.68123e-25
-5.26344e-06  2.64417e-07  1.76552e-25
-5.26344e-06  2.22110e-07 -1.70184e-26
-5.26344e-06  1.79804e-07  3.05625e-25
-5.26344e-06  1.37497e-07  4.15788e-25
-5.26344e-06  9.51902e-08  1.29883e-25
-5.26344e-06  5.28834e-08  6.67296e-26
-5.26344e-06  1.05767e-08 -8.32999e-26
-5.20818e-06  4.19894e-06  1.85513e-25
-5.20818e-06  4.15664e-06  1.40473e-25
-5.20818e-06  4.11433e-06  7.08235e-26
-5.20818e-06  4.07202e-06  1.09741e-25
-5.20818e-06  4.02972e-06  1.24320e-25
-5.20818e-06  3.98741e-06  9.72573e-26
-5.20818e-06  3.94510e-06 -2.13151e-25
-5.20818e-06  3.90280e-06 -2.65190e-25
-5.20818e-06  3.86049e-06  4.12477e-25
-5.20818e-06  3.81818e-06  2.38136e-26
-5.20818e-06  3.77588e-06 -2.57983e-25